Program Version,EnergyPlus, Version 23.2.0-7636e6b3e9, YMD=2024.07.09 14:31
1,5,Environment Title[],Latitude[deg],Longitude[deg],Time Zone[],Elevation[m]
2,8,Day of Simulation[],Month[],Day of Month[],DST Indicator[1=yes 0=no],Hour[],StartMinute[],EndMinute[],DayType
3,5,Cumulative Day of Simulation[],Month[],Day of Month[],DST Indicator[1=yes 0=no],DayType  ! When Daily Report Variables Requested
4,2,Cumulative Days of Simulation[],Month[]  ! When Monthly Report Variables Requested
5,1,Cumulative Days of Simulation[] ! When Run Period Report Variables Requested
6,1,Calendar Year of Simulation[] ! When Annual Report Variables Requested
7,7,Environment,Site Outdoor Air Drybulb Temperature [C] !Daily [Value,Min,Hour,Minute,Max,Hour,Minute]
8,9,Environment,Site Outdoor Air Drybulb Temperature [C] !Monthly [Value,Min,Day,Hour,Minute,Max,Day,Hour,Minute]
9,11,Environment,Site Outdoor Air Drybulb Temperature [C] !RunPeriod [Value,Min,Month,Day,Hour,Minute,Max,Month,Day,Hour,Minute]
10,7,Environment,Site Outdoor Air Dewpoint Temperature [C] !Daily [Value,Min,Hour,Minute,Max,Hour,Minute]
11,9,Environment,Site Outdoor Air Dewpoint Temperature [C] !Monthly [Value,Min,Day,Hour,Minute,Max,Day,Hour,Minute]
12,11,Environment,Site Outdoor Air Dewpoint Temperature [C] !RunPeriod [Value,Min,Month,Day,Hour,Minute,Max,Month,Day,Hour,Minute]
13,7,Environment,Site Outdoor Air Barometric Pressure [Pa] !Daily [Value,Min,Hour,Minute,Max,Hour,Minute]
14,9,Environment,Site Outdoor Air Barometric Pressure [Pa] !Monthly [Value,Min,Day,Hour,Minute,Max,Day,Hour,Minute]
15,11,Environment,Site Outdoor Air Barometric Pressure [Pa] !RunPeriod [Value,Min,Month,Day,Hour,Minute,Max,Month,Day,Hour,Minute]
16,7,Environment,Site Wind Speed [m/s] !Daily [Value,Min,Hour,Minute,Max,Hour,Minute]
17,9,Environment,Site Wind Speed [m/s] !Monthly [Value,Min,Day,Hour,Minute,Max,Day,Hour,Minute]
18,11,Environment,Site Wind Speed [m/s] !RunPeriod [Value,Min,Month,Day,Hour,Minute,Max,Month,Day,Hour,Minute]
19,7,Environment,Site Wind Direction [deg] !Daily [Value,Min,Hour,Minute,Max,Hour,Minute]
20,9,Environment,Site Wind Direction [deg] !Monthly [Value,Min,Day,Hour,Minute,Max,Day,Hour,Minute]
21,11,Environment,Site Wind Direction [deg] !RunPeriod [Value,Min,Month,Day,Hour,Minute,Max,Month,Day,Hour,Minute]
22,7,Environment,Site Diffuse Solar Radiation Rate per Area [W/m2] !Daily [Value,Min,Hour,Minute,Max,Hour,Minute]
23,9,Environment,Site Diffuse Solar Radiation Rate per Area [W/m2] !Monthly [Value,Min,Day,Hour,Minute,Max,Day,Hour,Minute]
24,11,Environment,Site Diffuse Solar Radiation Rate per Area [W/m2] !RunPeriod [Value,Min,Month,Day,Hour,Minute,Max,Month,Day,Hour,Minute]
25,7,Environment,Site Direct Solar Radiation Rate per Area [W/m2] !Daily [Value,Min,Hour,Minute,Max,Hour,Minute]
26,9,Environment,Site Direct Solar Radiation Rate per Area [W/m2] !Monthly [Value,Min,Day,Hour,Minute,Max,Day,Hour,Minute]
27,11,Environment,Site Direct Solar Radiation Rate per Area [W/m2] !RunPeriod [Value,Min,Month,Day,Hour,Minute,Max,Month,Day,Hour,Minute]
28,7,Environment,Site Solar Azimuth Angle [deg] !Daily [Value,Min,Hour,Minute,Max,Hour,Minute]
29,9,Environment,Site Solar Azimuth Angle [deg] !Monthly [Value,Min,Day,Hour,Minute,Max,Day,Hour,Minute]
30,11,Environment,Site Solar Azimuth Angle [deg] !RunPeriod [Value,Min,Month,Day,Hour,Minute,Max,Month,Day,Hour,Minute]
31,7,Environment,Site Solar Altitude Angle [deg] !Daily [Value,Min,Hour,Minute,Max,Hour,Minute]
32,9,Environment,Site Solar Altitude Angle [deg] !Monthly [Value,Min,Day,Hour,Minute,Max,Day,Hour,Minute]
33,11,Environment,Site Solar Altitude Angle [deg] !RunPeriod [Value,Min,Month,Day,Hour,Minute,Max,Month,Day,Hour,Minute]
155,7,189 MISCELLANEOUS GAIN,Other Equipment Lost Heat Rate [W] !Daily [Value,Min,Hour,Minute,Max,Hour,Minute]
156,9,189 MISCELLANEOUS GAIN,Other Equipment Lost Heat Rate [W] !Monthly [Value,Min,Day,Hour,Minute,Max,Day,Hour,Minute]
157,11,189 MISCELLANEOUS GAIN,Other Equipment Lost Heat Rate [W] !RunPeriod [Value,Min,Month,Day,Hour,Minute,Max,Month,Day,Hour,Minute]
158,7,189 MISCELLANEOUS GAIN,Other Equipment Total Heating Rate [W] !Daily [Value,Min,Hour,Minute,Max,Hour,Minute]
159,9,189 MISCELLANEOUS GAIN,Other Equipment Total Heating Rate [W] !Monthly [Value,Min,Day,Hour,Minute,Max,Day,Hour,Minute]
160,11,189 MISCELLANEOUS GAIN,Other Equipment Total Heating Rate [W] !RunPeriod [Value,Min,Month,Day,Hour,Minute,Max,Month,Day,Hour,Minute]
161,1,ATTIC,Zone Air Temperature [C] !Hourly
162,1,ATTIC,Zone Air Relative Humidity [%] !Hourly
297,1,LIVING-UNIT,Zone Air Temperature [C] !Hourly
298,1,LIVING-UNIT,Zone Air Relative Humidity [%] !Hourly
508,7,Whole Building,Facility Total Produced Electricity Energy [J] !Daily [Value,Min,Hour,Minute,Max,Hour,Minute]
509,9,Whole Building,Facility Total Produced Electricity Energy [J] !Monthly [Value,Min,Day,Hour,Minute,Max,Day,Hour,Minute]
510,11,Whole Building,Facility Total Produced Electricity Energy [J] !RunPeriod [Value,Min,Month,Day,Hour,Minute,Max,Month,Day,Hour,Minute]
124,11,ELECTRIC EQUIPMENT#189#GeneralLights:InteriorLights:Electricity [J] !RunPeriod [Value,Min,Month,Day,Hour,Minute,Max,Month,Day,Hour,Minute]
136,11,ELECTRIC EQUIPMENT#189#GeneralLights:InteriorLights:Electricity:Zone:LIVING-UNIT [J] !RunPeriod [Value,Min,Month,Day,Hour,Minute,Max,Month,Day,Hour,Minute]
148,11,ELECTRIC EQUIPMENT#189#GeneralLights:InteriorLights:Electricity:SpaceType:GENERAL [J] !RunPeriod [Value,Min,Month,Day,Hour,Minute,Max,Month,Day,Hour,Minute]
122,9,ELECTRIC EQUIPMENT#189#GeneralLights:InteriorLights:Electricity [J] !Monthly [Value,Min,Day,Hour,Minute,Max,Day,Hour,Minute]
134,9,ELECTRIC EQUIPMENT#189#GeneralLights:InteriorLights:Electricity:Zone:LIVING-UNIT [J] !Monthly [Value,Min,Day,Hour,Minute,Max,Day,Hour,Minute]
146,9,ELECTRIC EQUIPMENT#189#GeneralLights:InteriorLights:Electricity:SpaceType:GENERAL [J] !Monthly [Value,Min,Day,Hour,Minute,Max,Day,Hour,Minute]
121,7,ELECTRIC EQUIPMENT#189#GeneralLights:InteriorLights:Electricity [J] !Daily [Value,Min,Hour,Minute,Max,Hour,Minute]
133,7,ELECTRIC EQUIPMENT#189#GeneralLights:InteriorLights:Electricity:Zone:LIVING-UNIT [J] !Daily [Value,Min,Hour,Minute,Max,Hour,Minute]
145,7,ELECTRIC EQUIPMENT#189#GeneralLights:InteriorLights:Electricity:SpaceType:GENERAL [J] !Daily [Value,Min,Hour,Minute,Max,Hour,Minute]
88,11,InteriorLights:Electricity [J] !RunPeriod [Value,Min,Month,Day,Hour,Minute,Max,Month,Day,Hour,Minute]
40,11,Electricity:Facility [J] !RunPeriod [Value,Min,Month,Day,Hour,Minute,Max,Month,Day,Hour,Minute]
604,11,NaturalGas:Facility [J] !RunPeriod [Value,Min,Month,Day,Hour,Minute,Max,Month,Day,Hour,Minute]
35,1,Electricity:Facility [J] !TimeStep
599,1,NaturalGas:Facility [J] !TimeStep
End of Data Dictionary
1,DETACHED HOUSE (01-01:31-12),  47.48,  21.63,   1.00, 112.00
2,1, 1, 1, 0, 1, 0.00,30.00,Sunday
35,69838.82839727745
599,9919483.633506626
2,1, 1, 1, 0, 1,30.00,60.00,Sunday
35,69838.82839727745
599,9899601.007544667
2,1, 1, 1, 0, 1, 0.00,60.00,Sunday
161,-9.890148137533547
162,91.76947980730938
297,18.772224481919714
298,12.696588871065346
2,1, 1, 1, 0, 2, 0.00,30.00,Sunday
35,69838.82839727745
599,9853126.246011177
2,1, 1, 1, 0, 2,30.00,60.00,Sunday
35,69838.82839727745
599,9862136.891359255
2,1, 1, 1, 0, 2, 0.00,60.00,Sunday
161,-9.816488354529886
162,99.94100009914342
297,18.74983607758686
298,14.018726254003237
2,1, 1, 1, 0, 3, 0.00,30.00,Sunday
35,69838.82839727745
599,9897492.772101896
2,1, 1, 1, 0, 3,30.00,60.00,Sunday
35,69838.82839727745
599,9922955.035406554
2,1, 1, 1, 0, 3, 0.00,60.00,Sunday
161,-10.11621493100838
162,94.80363015375973
297,18.488583339756325
298,13.772251137048551
2,1, 1, 1, 0, 4, 0.00,30.00,Sunday
35,69838.82839727745
599,9943832.011387132
2,1, 1, 1, 0, 4,30.00,60.00,Sunday
35,69838.82839727745
599,9960664.421435177
2,1, 1, 1, 0, 4, 0.00,60.00,Sunday
161,-10.497313239997668
162,86.94552123960175
297,18.31479063083708
298,12.728906357065059
2,1, 1, 1, 0, 5, 0.00,30.00,Sunday
35,69838.82839727745
599,9976751.266251741
2,1, 1, 1, 0, 5,30.00,60.00,Sunday
35,69838.82839727745
599,9986539.772421354
2,1, 1, 1, 0, 5, 0.00,60.00,Sunday
161,-10.938323960687804
162,82.5354261906879
297,18.209838808325948
298,11.845620701419811
2,1, 1, 1, 0, 6, 0.00,30.00,Sunday
35,69838.82839727745
599,9993518.793426817
2,1, 1, 1, 0, 6,30.00,60.00,Sunday
35,69838.82839727745
599,10000616.632619275
2,1, 1, 1, 0, 6, 0.00,60.00,Sunday
161,-11.473518871787274
162,82.05625205402305
297,18.13845076401516
298,11.293093012319705
2,1, 1, 1, 0, 7, 0.00,30.00,Sunday
35,69838.82839727745
599,10008204.677934343
2,1, 1, 1, 0, 7,30.00,60.00,Sunday
35,69838.82839727745
599,10011909.78993268
2,1, 1, 1, 0, 7, 0.00,60.00,Sunday
161,-12.001942696389802
162,83.47924401486006
297,18.09739846642744
298,10.957027363504134
2,1, 1, 1, 0, 8, 0.00,30.00,Sunday
35,2208238.763192278
599,9938139.261951195
2,1, 1, 1, 0, 8,30.00,60.00,Sunday
35,2208238.763192278
599,9810682.9826121
2,1, 1, 1, 0, 8, 0.00,60.00,Sunday
161,-12.366068010199903
162,85.93949388784871
297,18.9432021437755
298,10.22168428321084
2,1, 1, 1, 0, 9, 0.00,30.00,Sunday
35,2208238.763192278
599,9812176.225628104
2,1, 1, 1, 0, 9,30.00,60.00,Sunday
35,2208238.763192278
599,9793544.952779084
2,1, 1, 1, 0, 9, 0.00,60.00,Sunday
161,-12.230664281623813
162,87.2174448864499
297,19.24413692328627
298,10.083532525658853
2,1, 1, 1, 0,10, 0.00,30.00,Sunday
35,2138399.9347950006
599,0.0
2,1, 1, 1, 0,10,30.00,60.00,Sunday
35,2138399.9347950006
599,0.0
2,1, 1, 1, 0,10, 0.00,60.00,Sunday
161,-11.338655161057783
162,86.5350652059615
297,14.416386716955003
298,14.157274372166295
2,1, 1, 1, 0,11, 0.00,30.00,Sunday
35,2138399.9347950006
599,0.0
2,1, 1, 1, 0,11,30.00,60.00,Sunday
35,2138399.9347950006
599,0.0
2,1, 1, 1, 0,11, 0.00,60.00,Sunday
161,-9.845152525561083
162,84.92713437568383
297,13.280768019304755
298,16.046456376552193
2,1, 1, 1, 0,12, 0.00,30.00,Sunday
35,2138399.9347950006
599,0.0
2,1, 1, 1, 0,12,30.00,60.00,Sunday
35,2138399.9347950006
599,0.0
2,1, 1, 1, 0,12, 0.00,60.00,Sunday
161,-7.544202875216243
162,82.93594773923724
297,13.515535708362226
298,17.747886510168662
2,1, 1, 1, 0,13, 0.00,30.00,Sunday
35,2138399.9347950006
599,0.0
2,1, 1, 1, 0,13,30.00,60.00,Sunday
35,2138399.9347950006
599,0.0
2,1, 1, 1, 0,13, 0.00,60.00,Sunday
161,-4.893525800401273
162,76.1519230163247
297,13.97524165604049
298,19.361273118854854
2,1, 1, 1, 0,14, 0.00,30.00,Sunday
35,2138399.9347950006
599,0.0
2,1, 1, 1, 0,14,30.00,60.00,Sunday
35,2138399.9347950006
599,0.0
2,1, 1, 1, 0,14, 0.00,60.00,Sunday
161,-3.384016881524091
162,70.84260148970446
297,13.92193036881298
298,20.539000036912057
2,1, 1, 1, 0,15, 0.00,30.00,Sunday
35,2138399.9347950006
599,0.0
2,1, 1, 1, 0,15,30.00,60.00,Sunday
35,2208238.763192278
599,489760.43181022716
2,1, 1, 1, 0,15, 0.00,60.00,Sunday
161,-3.035116992058323
162,70.4389564950687
297,13.185782264417748
298,22.19390809762163
2,1, 1, 1, 0,16, 0.00,30.00,Sunday
35,2208238.763192278
599,581513.0789674652
2,1, 1, 1, 0,16,30.00,60.00,Sunday
35,2208238.763192278
599,723357.9116624029
2,1, 1, 1, 0,16, 0.00,60.00,Sunday
161,-3.580380873839955
162,73.51520292010476
297,13.000928455618958
298,22.642848587928924
2,1, 1, 1, 0,17, 0.00,30.00,Sunday
35,2208238.763192278
599,1129952.3191232816
2,1, 1, 1, 0,17,30.00,60.00,Sunday
35,2208238.763192278
599,1516722.43277853
2,1, 1, 1, 0,17, 0.00,60.00,Sunday
161,-4.730602402160477
162,74.50253206623833
297,12.999971666773417
298,21.287192948333924
2,1, 1, 1, 0,18, 0.00,30.00,Sunday
35,2208238.763192278
599,1690898.2924364796
2,1, 1, 1, 0,18,30.00,60.00,Sunday
35,2208238.763192278
599,1847696.889175138
2,1, 1, 1, 0,18, 0.00,60.00,Sunday
161,-6.108327411187427
162,71.83778055521373
297,12.99974445888062
298,18.7732919142977
2,1, 1, 1, 0,19, 0.00,30.00,Sunday
35,2208238.763192278
599,1899334.590493565
2,1, 1, 1, 0,19,30.00,60.00,Sunday
35,2208238.763192278
599,2035195.0709224436
2,1, 1, 1, 0,19, 0.00,60.00,Sunday
161,-7.396146737735767
162,71.9414410586673
297,12.99982254783681
298,17.03230392058446
2,1, 1, 1, 0,20, 0.00,30.00,Sunday
35,2208238.763192278
599,2016696.2460768763
2,1, 1, 1, 0,20,30.00,60.00,Sunday
35,2208238.763192278
599,1993945.9255906465
2,1, 1, 1, 0,20, 0.00,60.00,Sunday
161,-8.425601796649474
162,74.43457857725087
297,12.999866642186028
298,16.12593177301781
2,1, 1, 1, 0,21, 0.00,30.00,Sunday
35,2208235.703507314
599,9764170.076261275
2,1, 1, 1, 0,21,30.00,60.00,Sunday
35,2208238.1063836184
599,10054820.362444114
2,1, 1, 1, 0,21, 0.00,60.00,Sunday
161,-9.211974078999724
162,77.71653517071425
297,17.79557253517897
298,11.693965807464657
2,1, 1, 1, 0,22, 0.00,30.00,Sunday
35,2208238.2978721233
599,10083464.079586241
2,1, 1, 1, 0,22,30.00,60.00,Sunday
35,2208238.763192278
599,9932475.950792737
2,1, 1, 1, 0,22, 0.00,60.00,Sunday
161,-9.82818896599419
162,82.13073539452705
297,18.510317224106274
298,11.326198019299383
2,1, 1, 1, 0,23, 0.00,30.00,Sunday
35,1780558.7762332782
599,9845058.03551294
2,1, 1, 1, 0,23,30.00,60.00,Sunday
35,1780558.7762332782
599,9848506.92303855
2,1, 1, 1, 0,23, 0.00,60.00,Sunday
161,-10.094023049485852
162,88.90144658420112
297,18.978528951876324
298,11.73138791014205
2,1, 1, 1, 0,24, 0.00,30.00,Sunday
35,497518.8153562776
599,9845452.482314046
2,1, 1, 1, 0,24,30.00,60.00,Sunday
35,497518.8153562776
599,9919532.418597436
2,1, 1, 1, 0,24, 0.00,60.00,Sunday
161,-10.112671610419348
162,89.34617642054855
297,18.569066706718292
298,12.214444564706152
3,1, 1, 1, 0,Sunday
7,-9.987500000000002,-13.1, 6,60,-5.3,13,60
10,-10.941666666666668,-14.3, 7,60,-5.9,13,60
13,101591.66666666667,100700.0, 1,60,101900.0, 5,60
16,0.6666666666666666,0.0, 2,60,2.0,14,60
19,90.0,0.0, 2,60,350.0, 8,30
22,24.5,0.0, 1,30,146.0,12,30
25,59.708333333333336,0.0, 1,30,558.0,13,30
28,189.00935416440598,28.179653072137103, 1,30,356.1974201336555,24,30
31,-19.484252058927897,-65.57342954058628,24,30,19.41146318811126,12,30
155,0.0,0.0, 1,30,0.0, 1,30
158,1031.9759685325507,1031.9759685325505, 1,30,1031.9759685325505, 1,30
508,0.0,0.0, 1,30,0.0, 1,30
121,68428797.91343999,0.0, 1,30,2138399.9347950006, 8,30
133,68428797.91343999,0.0, 1,30,2138399.9347950006, 8,30
145,68428797.91343999,0.0, 1,30,2138399.9347950006, 8,30
2,2, 1, 2, 0, 1, 0.00,30.00,Holiday
35,69838.82839727745
599,9933719.914692186
2,2, 1, 2, 0, 1,30.00,60.00,Holiday
35,69838.82839727745
599,9940090.91677081
2,2, 1, 2, 0, 1, 0.00,60.00,Holiday
161,-10.05172889048462
162,88.4238424160524
297,18.47766981048797
298,12.458276324289399
2,2, 1, 2, 0, 2, 0.00,30.00,Holiday
35,69838.82839727745
599,9931245.631418182
2,2, 1, 2, 0, 2,30.00,60.00,Holiday
35,69838.82839727745
599,9938217.707213849
2,2, 1, 2, 0, 2, 0.00,60.00,Holiday
161,-10.033850766404939
162,90.01474421863344
297,18.427575862792214
298,12.922115929668667
2,2, 1, 2, 0, 3, 0.00,30.00,Holiday
35,69838.82839727745
599,9953413.097085945
2,2, 1, 2, 0, 3,30.00,60.00,Holiday
35,69838.82839727745
599,9953492.413383035
2,2, 1, 2, 0, 3, 0.00,60.00,Holiday
161,-10.202720614490108
162,89.40683942683793
297,18.410265467657492
298,12.85654387744975
2,2, 1, 2, 0, 4, 0.00,30.00,Holiday
35,69838.82839727745
599,9946229.679108651
2,2, 1, 2, 0, 4,30.00,60.00,Holiday
35,69838.82839727745
599,9950797.937841866
2,2, 1, 2, 0, 4, 0.00,60.00,Holiday
161,-10.450717856412432
162,89.94247231634978
297,18.37486628639962
298,12.763094646712503
2,2, 1, 2, 0, 5, 0.00,30.00,Holiday
35,69838.82839727745
599,9962540.939096918
2,2, 1, 2, 0, 5,30.00,60.00,Holiday
35,69838.82839727745
599,9964911.235272836
2,2, 1, 2, 0, 5, 0.00,60.00,Holiday
161,-10.511133326690125
162,89.16691691361194
297,18.342423885044536
298,12.653196525458764
2,2, 1, 2, 0, 6, 0.00,30.00,Holiday
35,69838.82839727745
599,9962247.182785682
2,2, 1, 2, 0, 6,30.00,60.00,Holiday
35,69838.82839727745
599,9959935.474265166
2,2, 1, 2, 0, 6, 0.00,60.00,Holiday
161,-10.44289762289284
162,89.66983001544084
297,18.365148020008974
298,12.717443457539476
2,2, 1, 2, 0, 7, 0.00,30.00,Holiday
35,69838.82839727745
599,9958076.735210257
2,2, 1, 2, 0, 7,30.00,60.00,Holiday
35,69838.82839727745
599,9952317.032144738
2,2, 1, 2, 0, 7, 0.00,60.00,Holiday
161,-10.301496754878139
162,91.63468220362165
297,18.41828961362696
298,12.993151646927192
2,2, 1, 2, 0, 8, 0.00,30.00,Holiday
35,2208238.763192278
599,9869311.104789551
2,2, 1, 2, 0, 8,30.00,60.00,Holiday
35,2208238.763192278
599,9741968.387522036
2,2, 1, 2, 0, 8, 0.00,60.00,Holiday
161,-10.114766313800043
162,92.5433670246876
297,19.290084681688995
298,12.468171176640034
2,2, 1, 2, 0, 9, 0.00,30.00,Holiday
35,2208238.763192278
599,9741288.845285166
2,2, 1, 2, 0, 9,30.00,60.00,Holiday
35,2208238.763192278
599,9705388.559242047
2,2, 1, 2, 0, 9, 0.00,60.00,Holiday
161,-9.694599816015455
162,92.52647918378742
297,19.637249637150337
298,12.490290524679128
2,2, 1, 2, 0,10, 0.00,30.00,Holiday
35,2138399.9347950006
599,0.0
2,2, 1, 2, 0,10,30.00,60.00,Holiday
35,2138399.9347950006
599,0.0
2,2, 1, 2, 0,10, 0.00,60.00,Holiday
161,-8.729788372483672
162,93.46676266488694
297,15.027665050103739
298,17.74883253753109
2,2, 1, 2, 0,11, 0.00,30.00,Holiday
35,2138399.9347950006
599,0.0
2,2, 1, 2, 0,11,30.00,60.00,Holiday
35,2138399.9347950006
599,0.0
2,2, 1, 2, 0,11, 0.00,60.00,Holiday
161,-7.291478899926059
162,97.28234302836393
297,13.8467770676445
298,21.274950563895796
2,2, 1, 2, 0,12, 0.00,30.00,Holiday
35,2138399.9347950006
599,0.0
2,2, 1, 2, 0,12,30.00,60.00,Holiday
35,2138399.9347950006
599,0.0
2,2, 1, 2, 0,12, 0.00,60.00,Holiday
161,-5.589747654800765
162,99.84135381280346
297,13.649230307857616
298,25.371119315275735
2,2, 1, 2, 0,13, 0.00,30.00,Holiday
35,2138399.9347950006
599,0.0
2,2, 1, 2, 0,13,30.00,60.00,Holiday
35,2138399.9347950006
599,0.0
2,2, 1, 2, 0,13, 0.00,60.00,Holiday
161,-3.917904780155998
162,99.71834474860555
297,13.790291656513332
298,28.64086695602142
2,2, 1, 2, 0,14, 0.00,30.00,Holiday
35,2138399.9347950006
599,0.0
2,2, 1, 2, 0,14,30.00,60.00,Holiday
35,2138399.9347950006
599,0.0
2,2, 1, 2, 0,14, 0.00,60.00,Holiday
161,-2.458097630259614
162,97.68900717703602
297,13.8288596446716
298,31.206565177966155
2,2, 1, 2, 0,15, 0.00,30.00,Holiday
35,2138399.9347950006
599,0.0
2,2, 1, 2, 0,15,30.00,60.00,Holiday
35,2138399.9347950006
599,0.0
2,2, 1, 2, 0,15, 0.00,60.00,Holiday
161,-1.5341229688145623
162,92.92988620315435
297,13.751415423674587
298,32.09175539335894
2,2, 1, 2, 0,16, 0.00,30.00,Holiday
35,2138399.9347950006
599,0.0
2,2, 1, 2, 0,16,30.00,60.00,Holiday
35,2138399.9347950006
599,0.0
2,2, 1, 2, 0,16, 0.00,60.00,Holiday
161,-0.9993954616603191
162,91.42061175514394
297,13.606161186953123
298,33.336000668250335
2,2, 1, 2, 0,17, 0.00,30.00,Holiday
35,2138399.9347950006
599,0.0
2,2, 1, 2, 0,17,30.00,60.00,Holiday
35,2138399.9347950006
599,0.0
2,2, 1, 2, 0,17, 0.00,60.00,Holiday
161,-0.8205374151478575
162,91.40453738682902
297,13.493889781286939
298,34.17841057549316
2,2, 1, 2, 0,18, 0.00,30.00,Holiday
35,2138399.9347950006
599,0.0
2,2, 1, 2, 0,18,30.00,60.00,Holiday
35,2138399.9347950006
599,0.0
2,2, 1, 2, 0,18, 0.00,60.00,Holiday
161,-0.7404347851464086
162,91.16292690059079
297,13.413860673259862
298,34.59597356018325
2,2, 1, 2, 0,19, 0.00,30.00,Holiday
35,2138399.9347950006
599,0.0
2,2, 1, 2, 0,19,30.00,60.00,Holiday
35,2138399.9347950006
599,0.0
2,2, 1, 2, 0,19, 0.00,60.00,Holiday
161,-0.6802173097043269
162,89.95150105529532
297,13.40257994317751
298,34.549001251658964
2,2, 1, 2, 0,20, 0.00,30.00,Holiday
35,2138399.9347950006
599,0.0
2,2, 1, 2, 0,20,30.00,60.00,Holiday
35,2138399.9347950006
599,0.0
2,2, 1, 2, 0,20, 0.00,60.00,Holiday
161,-0.7269978780779334
162,86.96809669732166
297,13.26990137652783
298,33.96390091358546
2,2, 1, 2, 0,21, 0.00,30.00,Holiday
35,2208235.586667241
599,8294780.955213037
2,2, 1, 2, 0,21,30.00,60.00,Holiday
35,2208238.763192278
599,9752914.86302931
2,2, 1, 2, 0,21, 0.00,60.00,Holiday
161,-1.0155497087264929
162,85.17048193254536
297,18.844367284146628
298,23.170665743378734
2,2, 1, 2, 0,22, 0.00,30.00,Holiday
35,2208238.763192278
599,9823296.92486523
2,2, 1, 2, 0,22,30.00,60.00,Holiday
35,2208238.763192278
599,9246220.992082942
2,2, 1, 2, 0,22, 0.00,60.00,Holiday
161,-1.4999167615893663
162,84.26770531214419
297,19.740826464998534
298,21.262851856027645
2,2, 1, 2, 0,23, 0.00,30.00,Holiday
35,1780558.7762332782
599,9309594.65006907
2,2, 1, 2, 0,23,30.00,60.00,Holiday
35,1780558.7762332782
599,9010734.260319576
2,2, 1, 2, 0,23, 0.00,60.00,Holiday
161,-1.8872059341145113
162,82.20038733775267
297,20.116885700438537
298,20.128881250424083
2,2, 1, 2, 0,24, 0.00,30.00,Holiday
35,497518.8153562776
599,9583673.201002497
2,2, 1, 2, 0,24,30.00,60.00,Holiday
35,497518.8153562776
599,9370820.449426597
2,2, 1, 2, 0,24, 0.00,60.00,Holiday
161,-1.9137907038683124
162,82.199141649267
297,20.11741362693902
298,20.131716251092143
3,2, 1, 2, 0,Holiday
7,-4.614583333333333,-10.9, 4,60,0.9,15,60
10,-6.1968749999999995,-12.1, 4,60,-1.8,13,60
13,101008.33333333333,100600.0,22,60,101400.0, 1,30
16,2.0,0.0, 3,60,4.0,23,60
19,56.770833333333336,0.0, 3,60,100.0, 2,60
22,28.5625,0.0, 1,30,138.0,13,30
25,4.083333333333333,0.0, 1,30,49.0,13,30
28,188.90499856785232,27.892444055840905, 1,30,355.94979468468006,24,30
31,-19.41649989338788,-65.48579913764692,24,30,19.491442863794088,12,30
155,0.0,0.0, 1,30,0.0, 1,30
158,1031.9759685325507,1031.9759685325505, 1,30,1031.9759685325505, 1,30
508,0.0,0.0, 1,30,0.0, 1,30
121,68428797.91343999,0.0, 1,30,2138399.9347950006, 8,30
133,68428797.91343999,0.0, 1,30,2138399.9347950006, 8,30
145,68428797.91343999,0.0, 1,30,2138399.9347950006, 8,30
2,3, 1, 3, 0, 1, 0.00,30.00,Tuesday
35,69838.82839727745
599,9520737.779351944
2,3, 1, 3, 0, 1,30.00,60.00,Tuesday
35,69838.82839727745
599,9475264.911588144
2,3, 1, 3, 0, 1, 0.00,60.00,Tuesday
161,-1.968747736860121
162,82.34417840557316
297,20.115552749111874
298,20.245691016210223
2,3, 1, 3, 0, 2, 0.00,30.00,Tuesday
35,69838.82839727745
599,9339660.081769736
2,3, 1, 3, 0, 2,30.00,60.00,Tuesday
35,69838.82839727745
599,9208006.337867208
2,3, 1, 3, 0, 2, 0.00,60.00,Tuesday
161,-1.9506078233543616
162,81.04362398818103
297,20.115830496730048
298,20.215196183847596
2,3, 1, 3, 0, 3, 0.00,30.00,Tuesday
35,69838.82839727745
599,9100168.929685714
2,3, 1, 3, 0, 3,30.00,60.00,Tuesday
35,69838.82839727745
599,9004941.032037703
2,3, 1, 3, 0, 3, 0.00,60.00,Tuesday
161,-1.8223715921944403
162,80.25048565186484
297,20.110623943704585
298,20.300702375238433
2,3, 1, 3, 0, 4, 0.00,30.00,Tuesday
35,69838.82839727745
599,8954615.76077224
2,3, 1, 3, 0, 4,30.00,60.00,Tuesday
35,69838.82839727745
599,8921230.62963359
2,3, 1, 3, 0, 4, 0.00,60.00,Tuesday
161,-1.7192342318830929
162,79.72613796358635
297,20.109264669894706
298,20.360560094071715
2,3, 1, 3, 0, 5, 0.00,30.00,Tuesday
35,69838.82839727745
599,9121551.272750326
2,3, 1, 3, 0, 5,30.00,60.00,Tuesday
35,69838.82839727745
599,9099504.973684255
2,3, 1, 3, 0, 5, 0.00,60.00,Tuesday
161,-1.475348093200385
162,78.32317404446121
297,20.107509285398855
298,20.415069421968873
2,3, 1, 3, 0, 6, 0.00,30.00,Tuesday
35,69838.82839727745
599,9082832.793218708
2,3, 1, 3, 0, 6,30.00,60.00,Tuesday
35,69838.82839727745
599,8705467.186590228
2,3, 1, 3, 0, 6, 0.00,60.00,Tuesday
161,-1.0921335896730178
162,77.7160236564543
297,20.11078501128382
298,20.642947713740085
2,3, 1, 3, 0, 7, 0.00,30.00,Tuesday
35,2208238.763192278
599,7021559.9702367
2,3, 1, 3, 0, 7,30.00,60.00,Tuesday
35,2208238.763192278
599,6691632.821196472
2,3, 1, 3, 0, 7, 0.00,60.00,Tuesday
161,-0.8848647324961254
162,78.23605339318502
297,20.08630090629221
298,20.872297883105496
2,3, 1, 3, 0, 8, 0.00,30.00,Tuesday
35,2208238.763192278
599,6525446.445612254
2,3, 1, 3, 0, 8,30.00,60.00,Tuesday
35,2208238.763192278
599,6355790.467049403
2,3, 1, 3, 0, 8, 0.00,60.00,Tuesday
161,-0.8266256301351957
162,78.40467060329614
297,20.07998178628848
298,20.9214874643272
2,3, 1, 3, 0, 9, 0.00,30.00,Tuesday
35,2208238.763192278
599,6169290.600079241
2,3, 1, 3, 0, 9,30.00,60.00,Tuesday
35,2208238.763192278
599,5885945.212081251
2,3, 1, 3, 0, 9, 0.00,60.00,Tuesday
161,-0.5382963267942563
162,77.63531016330563
297,20.075663471243928
298,20.949689681419706
2,3, 1, 3, 0,10, 0.00,30.00,Tuesday
35,2138399.9347950006
599,0.0
2,3, 1, 3, 0,10,30.00,60.00,Tuesday
35,2138399.9347950006
599,0.0
2,3, 1, 3, 0,10, 0.00,60.00,Tuesday
161,0.14242031344338343
162,75.1353177974677
297,17.117069551444143
298,25.40014995732605
2,3, 1, 3, 0,11, 0.00,30.00,Tuesday
35,2138399.9347950006
599,0.0
2,3, 1, 3, 0,11,30.00,60.00,Tuesday
35,2138399.9347950006
599,0.0
2,3, 1, 3, 0,11, 0.00,60.00,Tuesday
161,1.0664052742366823
162,72.18663691672592
297,16.564374830595593
298,26.59042825943621
2,3, 1, 3, 0,12, 0.00,30.00,Tuesday
35,2138399.9347950006
599,0.0
2,3, 1, 3, 0,12,30.00,60.00,Tuesday
35,2138399.9347950006
599,0.0
2,3, 1, 3, 0,12, 0.00,60.00,Tuesday
161,2.334730437881903
162,69.97153937743823
297,16.33263404440943
298,28.031340419660275
2,3, 1, 3, 0,13, 0.00,30.00,Tuesday
35,2138399.9347950006
599,0.0
2,3, 1, 3, 0,13,30.00,60.00,Tuesday
35,2138399.9347950006
599,0.0
2,3, 1, 3, 0,13, 0.00,60.00,Tuesday
161,3.436925410802548
162,66.23286414340711
297,16.427592378270905
298,28.366567907643116
2,3, 1, 3, 0,14, 0.00,30.00,Tuesday
35,2138399.9347950006
599,0.0
2,3, 1, 3, 0,14,30.00,60.00,Tuesday
35,2138399.9347950006
599,0.0
2,3, 1, 3, 0,14, 0.00,60.00,Tuesday
161,4.382048091865698
162,63.56699708020713
297,16.457402032298614
298,28.930409362505138
2,3, 1, 3, 0,15, 0.00,30.00,Tuesday
35,2138399.9347950006
599,0.0
2,3, 1, 3, 0,15,30.00,60.00,Tuesday
35,2138399.9347950006
599,0.0
2,3, 1, 3, 0,15, 0.00,60.00,Tuesday
161,4.760114908635433
162,63.550125598700895
297,16.22567298343418
298,30.131075626606
2,3, 1, 3, 0,16, 0.00,30.00,Tuesday
35,2138399.9347950006
599,0.0
2,3, 1, 3, 0,16,30.00,60.00,Tuesday
35,2138399.9347950006
599,0.0
2,3, 1, 3, 0,16, 0.00,60.00,Tuesday
161,4.510783926143601
162,64.66173024802455
297,15.9346555565454
298,30.851941531786014
2,3, 1, 3, 0,17, 0.00,30.00,Tuesday
35,2138399.9347950006
599,0.0
2,3, 1, 3, 0,17,30.00,60.00,Tuesday
35,2138399.9347950006
599,0.0
2,3, 1, 3, 0,17, 0.00,60.00,Tuesday
161,4.026359270337153
162,67.04458875348624
297,15.741882596427121
298,31.370157799406265
2,3, 1, 3, 0,18, 0.00,30.00,Tuesday
35,2138399.9347950006
599,0.0
2,3, 1, 3, 0,18,30.00,60.00,Tuesday
35,2138399.9347950006
599,0.0
2,3, 1, 3, 0,18, 0.00,60.00,Tuesday
161,3.5479666371354526
162,69.25092549803345
297,15.649502947229092
298,31.559310668723
2,3, 1, 3, 0,19, 0.00,30.00,Tuesday
35,2138399.9347950006
599,0.0
2,3, 1, 3, 0,19,30.00,60.00,Tuesday
35,2138399.9347950006
599,0.0
2,3, 1, 3, 0,19, 0.00,60.00,Tuesday
161,3.2522944975898262
162,70.38310658258091
297,15.487697653275134
298,31.89637913155848
2,3, 1, 3, 0,20, 0.00,30.00,Tuesday
35,2138399.9347950006
599,0.0
2,3, 1, 3, 0,20,30.00,60.00,Tuesday
35,2138399.9347950006
599,0.0
2,3, 1, 3, 0,20, 0.00,60.00,Tuesday
161,3.052339073073712
162,72.1106344881303
297,15.309015356317156
298,32.652216240307695
2,3, 1, 3, 0,21, 0.00,30.00,Tuesday
35,2208238.4622596484
599,5755855.459231897
2,3, 1, 3, 0,21,30.00,60.00,Tuesday
35,2208238.763192278
599,7576542.531640888
2,3, 1, 3, 0,21, 0.00,60.00,Tuesday
161,2.9241867929859238
162,74.01634679137197
297,19.71443487137417
298,25.196520244188015
2,3, 1, 3, 0,22, 0.00,30.00,Tuesday
35,2208238.763192278
599,7142750.2536841
2,3, 1, 3, 0,22,30.00,60.00,Tuesday
35,2208238.763192278
599,6333518.626146302
2,3, 1, 3, 0,22, 0.00,60.00,Tuesday
161,2.8359573553884925
162,76.2672848165908
297,20.085624625807235
298,25.516902527790347
2,3, 1, 3, 0,23, 0.00,30.00,Tuesday
35,1780558.7762332782
599,6396976.529849329
2,3, 1, 3, 0,23,30.00,60.00,Tuesday
35,1780558.7762332782
599,6221644.816338939
2,3, 1, 3, 0,23, 0.00,60.00,Tuesday
161,2.7821221126862783
162,78.64189654938232
297,20.07653779574013
298,26.489850588762764
2,3, 1, 3, 0,24, 0.00,30.00,Tuesday
35,497518.8153562776
599,7036836.92663988
2,3, 1, 3, 0,24,30.00,60.00,Tuesday
35,497518.8153562776
599,6821320.998579079
2,3, 1, 3, 0,24, 0.00,60.00,Tuesday
161,2.716032883017392
162,80.55449666131422
297,20.0786093156157
298,27.137103754500647
3,3, 1, 3, 0,Tuesday
7,0.6041666666666667,-2.1, 1,60,3.9,14,60
10,-2.2968750000000004,-4.6, 1,60,-0.1,23,60
13,100255.20833333333,100100.0,16,60,100600.0, 1,30
16,1.7864583333333333,0.0,20,60,3.0, 2,60
19,40.520833333333336,0.0,20,60,80.0,19,60
22,30.84375,0.0, 1,30,144.0,12,30
25,8.75,0.0, 1,30,66.0,12,30
28,188.80191334236622,27.602651210782827, 1,30,355.70741447033635,24,30
31,-19.34249859236041,-65.39035527123161,24,30,19.578856684673724,12,30
155,0.0,0.0, 1,30,0.0, 1,30
158,1031.9759685325507,1031.9759685325505, 1,30,1031.9759685325505, 1,30
508,0.0,0.0, 1,30,0.0, 1,30
121,72705597.78302999,0.0, 1,30,2138399.9347950006, 7,30
133,72705597.78302999,0.0, 1,30,2138399.9347950006, 7,30
145,72705597.78302999,0.0, 1,30,2138399.9347950006, 7,30
2,4, 1, 4, 0, 1, 0.00,30.00,Wednesday
35,69838.82839727745
599,7257663.906859273
2,4, 1, 4, 0, 1,30.00,60.00,Wednesday
35,69838.82839727745
599,7257870.54431056
2,4, 1, 4, 0, 1, 0.00,60.00,Wednesday
161,2.6126586447289935
162,82.07021715744085
297,20.085767871168226
298,27.661272916595816
2,4, 1, 4, 0, 2, 0.00,30.00,Wednesday
35,69838.82839727745
599,7271632.969642124
2,4, 1, 4, 0, 2,30.00,60.00,Wednesday
35,69838.82839727745
599,7042548.13013189
2,4, 1, 4, 0, 2, 0.00,60.00,Wednesday
161,2.6091607542685527
162,82.6081506555668
297,20.08330330158313
298,28.091254774452374
2,4, 1, 4, 0, 3, 0.00,30.00,Wednesday
35,69838.82839727745
599,6990607.557769812
2,4, 1, 4, 0, 3,30.00,60.00,Wednesday
35,69838.82839727745
599,6927958.021624205
2,4, 1, 4, 0, 3, 0.00,60.00,Wednesday
161,2.2805301279968804
162,84.78116344489843
297,20.083768383706953
298,28.297715317822195
2,4, 1, 4, 0, 4, 0.00,30.00,Wednesday
35,69838.82839727745
599,7119437.309442097
2,4, 1, 4, 0, 4,30.00,60.00,Wednesday
35,69838.82839727745
599,7140934.419101775
2,4, 1, 4, 0, 4, 0.00,60.00,Wednesday
161,2.1730933713811145
162,85.86991722836012
297,20.082271226937277
298,28.48314406521241
2,4, 1, 4, 0, 5, 0.00,30.00,Wednesday
35,69838.82839727745
599,7155701.937986573