Program Version,EnergyPlus, Version 24.1.0-9d7789a3ac, YMD=2024.07.17 10:00
1,5,Environment Title[],Latitude[deg],Longitude[deg],Time Zone[],Elevation[m]
2,8,Day of Simulation[],Month[],Day of Month[],DST Indicator[1=yes 0=no],Hour[],StartMinute[],EndMinute[],DayType
3,5,Cumulative Day of Simulation[],Month[],Day of Month[],DST Indicator[1=yes 0=no],DayType  ! When Daily Report Variables Requested
4,2,Cumulative Days of Simulation[],Month[]  ! When Monthly Report Variables Requested
5,1,Cumulative Days of Simulation[] ! When Run Period Report Variables Requested
6,1,Calendar Year of Simulation[] ! When Annual Report Variables Requested
1424,1,HPWHSCHEDULEDTANK_UNIT1,Water Heater Use Side Inlet Temperature [C] !Hourly
1425,1,HPWHSCHEDULEDTANK_UNIT1,Water Heater Use Side Outlet Temperature [C] !Hourly
1426,1,HPWHSCHEDULEDTANK_UNIT1,Water Heater Source Side Inlet Temperature [C] !Hourly
1427,1,HPWHSCHEDULEDTANK_UNIT1,Water Heater Source Side Outlet Temperature [C] !Hourly
1441,1,HPWHSCHEDULEDTANK_UNIT1,Water Heater Electricity Rate [W] !Hourly
1457,1,HPWHSCHEDULEDTANK_UNIT1,Water Heater Water Volume Flow Rate [m3/s] !Hourly
End of Data Dictionary
1,DETACHED HOUSE ANNUAL,  47.48,  21.63,   1.00, 112.00
2,1, 1, 1, 0, 1, 0.00,60.00,Sunday
1424,48.8888888888889
1425,59.907041623568354
1426,59.907041623568354
1427,59.907041623568354
1441,0.0
1457,0.0
2,1, 1, 1, 0, 2, 0.00,60.00,Sunday
1424,48.8888888888889
1425,59.72170606052092
1426,59.72170606052092
1427,59.72170606052092
1441,0.0
1457,0.0
2,1, 1, 1, 0, 3, 0.00,60.00,Sunday
1424,48.8888888888889
1425,59.5372393390597
1426,59.5372393390597
1427,59.5372393390597
1441,0.0
1457,0.0
2,1, 1, 1, 0, 4, 0.00,60.00,Sunday
1424,48.8888888888889
1425,59.35363725415908
1426,59.35363725415908
1427,59.35363725415908
1441,0.0
1457,0.0
2,1, 1, 1, 0, 5, 0.00,60.00,Sunday
1424,48.8888888888889
1425,59.1708956221011
1426,59.1708956221011
1427,59.1708956221011
1441,0.0
1457,0.0
2,1, 1, 1, 0, 6, 0.00,60.00,Sunday
1424,48.8888888888889
1425,58.98901028078335
1426,58.98901028078335
1427,58.98901028078335
1441,0.0
1457,0.0
2,1, 1, 1, 0, 7, 0.00,60.00,Sunday
1424,48.8888888888889
1425,58.807977089534816
1426,58.807977089534816
1427,58.807977089534816
1441,0.0
1457,0.0
2,1, 1, 1, 0, 8, 0.00,60.00,Sunday
1424,48.8888888888889
1425,58.627791928815235
1426,58.627791928815235
1427,58.627791928815235
1441,0.0
1457,0.0
2,1, 1, 1, 0, 9, 0.00,60.00,Sunday
1424,48.8888888888889
1425,58.4484507003901
1426,58.4484507003901
1427,58.4484507003901
1441,0.0
1457,0.0
2,1, 1, 1, 0,10, 0.00,60.00,Sunday
1424,48.8888888888889
1425,58.269949403277415
1426,58.269949403277415
1427,58.269949403277415
1441,0.0
1457,0.0
2,1, 1, 1, 0,11, 0.00,60.00,Sunday
1424,48.8888888888889
1425,58.092284512559615
1426,58.092284512559615
1427,58.092284512559615
1441,0.0
1457,0.0
2,1, 1, 1, 0,12, 0.00,60.00,Sunday
1424,48.88888888888889
1425,59.66932896026073
1426,61.33018879505099
1427,59.66932896026073
1441,0.0
1457,0.0
2,1, 1, 1, 0,13, 0.00,60.00,Sunday
1424,48.8888888888889
1425,59.78339289136297
1426,59.78339289136297
1427,59.78339289136297
1441,0.0
1457,0.0
2,1, 1, 1, 0,14, 0.00,60.00,Sunday
1424,48.8888888888889
1425,59.5986379566105
1426,59.5986379566105
1427,59.5986379566105
1441,0.0
1457,0.0
2,1, 1, 1, 0,15, 0.00,60.00,Sunday
1424,48.8888888888889
1425,59.414748384069625
1426,59.414748384069625
1427,59.414748384069625
1441,0.0
1457,0.0
2,1, 1, 1, 0,16, 0.00,60.00,Sunday
1424,48.8888888888889
1425,59.23172036862229
1426,59.23172036862229
1427,59.23172036862229
1441,0.0
1457,0.0
2,1, 1, 1, 0,17, 0.00,60.00,Sunday
1424,48.8888888888889
1425,59.049550401830786
1426,59.049550401830786
1427,59.049550401830786
1441,0.0
1457,0.0
2,1, 1, 1, 0,18, 0.00,60.00,Sunday
1424,48.8888888888889
1425,58.86823443497835
1426,58.86823443497835
1427,58.86823443497835
1441,0.0
1457,0.0
2,1, 1, 1, 0,19, 0.00,60.00,Sunday
1424,48.8888888888889
1425,58.68776785767731
1426,58.68776785767731
1427,58.68776785767731
1441,0.0
1457,0.0
2,1, 1, 1, 0,20, 0.00,60.00,Sunday
1424,48.8888888888889
1425,58.50814620225001
1426,58.50814620225001
1427,58.50814620225001
1441,0.0
1457,0.0
2,1, 1, 1, 0,21, 0.00,60.00,Sunday
1424,48.8888888888889
1425,58.32936528830727
1426,58.32936528830727
1427,58.32936528830727
1441,0.0
1457,0.0
2,1, 1, 1, 0,22, 0.00,60.00,Sunday
1424,48.8888888888889
1425,58.151421522801186
1426,58.151421522801186
1427,58.151421522801186
1441,0.0
1457,0.0
2,1, 1, 1, 0,23, 0.00,60.00,Sunday
1424,48.8888888888889
1425,59.200428115446066
1426,61.691206514537484
1427,59.200428115446066
1441,0.0
1457,0.0
2,1, 1, 1, 0,24, 0.00,60.00,Sunday
1424,48.8888888888889
1425,59.860641283164455
1426,59.860641283164455
1427,59.860641283164455
1441,0.0
1457,0.0
2,2, 1, 2, 0, 1, 0.00,60.00,Holiday
1424,48.8888888888889
1425,59.67552325434111
1426,59.67552325434111
1427,59.67552325434111
1441,0.0
1457,0.0
2,2, 1, 2, 0, 2, 0.00,60.00,Holiday
1424,48.8888888888889
1425,59.49127301419184
1426,59.49127301419184
1427,59.49127301419184
1441,0.0
1457,0.0
2,2, 1, 2, 0, 3, 0.00,60.00,Holiday
1424,48.8888888888889
1425,59.30788636290541
1426,59.30788636290541
1427,59.30788636290541
1441,0.0
1457,0.0
2,2, 1, 2, 0, 4, 0.00,60.00,Holiday
1424,48.8888888888889
1425,59.12535912223155
1426,59.12535912223155
1427,59.12535912223155
1441,0.0
1457,0.0
2,2, 1, 2, 0, 5, 0.00,60.00,Holiday
1424,48.8888888888889
1425,58.94368713548676
1426,58.94368713548676
1427,58.94368713548676
1441,0.0
1457,0.0
2,2, 1, 2, 0, 6, 0.00,60.00,Holiday
1424,48.8888888888889
1425,58.76286626730379
1426,58.76286626730379
1427,58.76286626730379
1441,0.0
1457,0.0
2,2, 1, 2, 0, 7, 0.00,60.00,Holiday
1424,48.8888888888889
1425,58.5828924034989
1426,58.5828924034989
1427,58.5828924034989
1441,0.0
1457,0.0
2,2, 1, 2, 0, 8, 0.00,60.00,Holiday
1424,48.8888888888889
1425,58.40376145099026
1426,58.40376145099026
1427,58.40376145099026
1441,0.0
1457,0.0
2,2, 1, 2, 0, 9, 0.00,60.00,Holiday
1424,48.8888888888889
1425,58.2254693376169
1426,58.2254693376169
1427,58.2254693376169
1441,0.0
1457,0.0
2,2, 1, 2, 0,10, 0.00,60.00,Holiday
1424,48.8888888888889
1425,58.27314166447577
1426,59.51818127768547
1427,58.27314166447577
1441,0.0
1457,0.0
2,2, 1, 2, 0,11, 0.00,60.00,Holiday
1424,48.8888888888889
1425,59.91384737005792
1426,60.53668422207349
1427,59.91384737005792
1441,0.0
1457,0.0
2,2, 1, 2, 0,12, 0.00,60.00,Holiday
1424,48.8888888888889
1425,59.74483377063906
1426,59.74483377063906
1427,59.74483377063906
1441,0.0
1457,0.0
2,2, 1, 2, 0,13, 0.00,60.00,Holiday
1424,48.8888888888889
1425,59.560259512681796
1426,59.560259512681796
1427,59.560259512681796
1441,0.0
1457,0.0
2,2, 1, 2, 0,14, 0.00,60.00,Holiday
1424,48.8888888888889
1425,59.37655040338475
1426,59.37655040338475
1427,59.37655040338475
1441,0.0
1457,0.0
2,2, 1, 2, 0,15, 0.00,60.00,Holiday
1424,48.8888888888889
1425,59.193701880930206
1426,59.193701880930206
1427,59.193701880930206
1441,0.0
1457,0.0
2,2, 1, 2, 0,16, 0.00,60.00,Holiday
1424,48.8888888888889
1425,59.01170968091626
1426,59.01170968091626
1427,59.01170968091626
1441,0.0
1457,0.0
2,2, 1, 2, 0,17, 0.00,60.00,Holiday
1424,48.8888888888889
1425,58.830570147640664
1426,58.830570147640664
1427,58.830570147640664
1441,0.0
1457,0.0
2,2, 1, 2, 0,18, 0.00,60.00,Holiday
1424,48.8888888888889
1425,58.65027915898003
1426,58.65027915898003
1427,58.65027915898003
1441,0.0
1457,0.0
2,2, 1, 2, 0,19, 0.00,60.00,Holiday
1424,48.8888888888889
1425,58.47083261393758
1426,58.47083261393758
1427,58.47083261393758
1441,0.0
1457,0.0
2,2, 1, 2, 0,20, 0.00,60.00,Holiday
1424,48.8888888888889
1425,58.29222643252782
1426,58.29222643252782
1427,58.29222643252782
1441,0.0
1457,0.0
2,2, 1, 2, 0,21, 0.00,60.00,Holiday
1424,48.8888888888889
1425,58.11445655566706
1426,58.11445655566706
1427,58.11445655566706
1441,0.0
1457,0.0
2,2, 1, 2, 0,22, 0.00,60.00,Holiday
1424,48.8888888888889
1425,59.6753993418289
1426,62.1650380201103
1427,59.6753993418289
1441,0.0
1457,0.0
2,2, 1, 2, 0,23, 0.00,60.00,Holiday
1424,48.8888888888889
1425,59.814278609775315
1426,59.814278609775315
1427,59.814278609775315
1441,0.0
1457,0.0
2,2, 1, 2, 0,24, 0.00,60.00,Holiday
1424,48.8888888888889
1425,59.6293779304774
1426,59.6293779304774
1427,59.6293779304774
1441,0.0
1457,0.0
2,3, 1, 3, 0, 1, 0.00,60.00,Tuesday
1424,48.8888888888889
1425,59.445343987831365
1426,59.445343987831365
1427,59.445343987831365
1441,0.0
1457,0.0
2,3, 1, 3, 0, 2, 0.00,60.00,Tuesday
1424,48.8888888888889
1425,59.262172587433156
1426,59.262172587433156
1427,59.262172587433156
1441,0.0
1457,0.0
2,3, 1, 3, 0, 3, 0.00,60.00,Tuesday
1424,48.8888888888889
1425,59.07985955642029
1426,59.07985955642029
1427,59.07985955642029
1441,0.0
1457,0.0
2,3, 1, 3, 0, 4, 0.00,60.00,Tuesday
1424,48.8888888888889
1425,58.898400743472514
1426,58.898400743472514
1427,58.898400743472514
1441,0.0
1457,0.0
2,3, 1, 3, 0, 5, 0.00,60.00,Tuesday
1424,48.8888888888889
1425,58.717792018520576
1426,58.717792018520576
1427,58.717792018520576
1441,0.0
1457,0.0
2,3, 1, 3, 0, 6, 0.00,60.00,Tuesday
1424,48.8888888888889
1425,58.538029272668915
1426,58.538029272668915
1427,58.538029272668915
1441,0.0
1457,0.0
2,3, 1, 3, 0, 7, 0.00,60.00,Tuesday
1424,48.8888888888889
1425,58.359108418078314
1426,58.359108418078314
1427,58.359108418078314
1441,0.0
1457,0.0
2,3, 1, 3, 0, 8, 0.00,60.00,Tuesday
1424,48.8888888888889
1425,58.18102538781769
1426,58.18102538781769
1427,58.18102538781769
1441,0.0
1457,0.0
2,3, 1, 3, 0, 9, 0.00,60.00,Tuesday
1424,48.8888888888889
1425,58.71424911395274
1426,61.20329902966218
1427,58.71424911395274
1441,0.0
1457,0.0
2,3, 1, 3, 0,10, 0.00,60.00,Tuesday
1424,48.8888888888889
1425,59.90705585889603
1426,59.90705585889603
1427,59.90705585889603
1441,0.0
1457,0.0
2,3, 1, 3, 0,11, 0.00,60.00,Tuesday
1424,48.8888888888889
1425,59.721720242673925
1426,59.721720242673925
1427,59.721720242673925
1441,0.0
1457,0.0
2,3, 1, 3, 0,12, 0.00,60.00,Tuesday
1424,48.8888888888889
1425,59.53725404258095
1426,59.53725404258095
1427,59.53725404258095
1441,0.0
1457,0.0
2,3, 1, 3, 0,13, 0.00,60.00,Tuesday
1424,48.8888888888889
1425,59.35365267576455
1426,59.35365267576455
1427,59.35365267576455
1441,0.0
1457,0.0
2,3, 1, 3, 0,14, 0.00,60.00,Tuesday
1424,48.8888888888889
1425,59.17091110615326
1426,59.17091110615326
1427,59.17091110615326
1441,0.0
1457,0.0
2,3, 1, 3, 0,15, 0.00,60.00,Tuesday
1424,48.8888888888889
1425,58.98902569201829
1426,58.98902569201829
1427,58.98902569201829
1441,0.0
1457,0.0
2,3, 1, 3, 0,16, 0.00,60.00,Tuesday
1424,48.8888888888889
1425,58.80799242831263
1426,58.80799242831263
1427,58.80799242831263
1441,0.0
1457,0.0
2,3, 1, 3, 0,17, 0.00,60.00,Tuesday
1424,48.8888888888889
1425,58.62780719555918
1426,58.62780719555918
1427,58.62780719555918
1441,0.0
1457,0.0
2,3, 1, 3, 0,18, 0.00,60.00,Tuesday
1424,48.8888888888889
1425,58.448465895416554
1426,58.448465895416554
1427,58.448465895416554
1441,0.0
1457,0.0
2,3, 1, 3, 0,19, 0.00,60.00,Tuesday
1424,48.8888888888889
1425,58.26996445050215
1426,58.26996445050215
1427,58.26996445050215
1441,0.0
1457,0.0
2,3, 1, 3, 0,20, 0.00,60.00,Tuesday
1424,48.8888888888889
1425,58.09229880432802
1426,58.09229880432802
1427,58.09229880432802
1441,0.0
1457,0.0
2,3, 1, 3, 0,21, 0.00,60.00,Tuesday
1424,48.8888888888889
1425,59.66694973517749
1426,62.155686101704966
1427,59.66694973517749
1441,0.0
1457,0.0
2,3, 1, 3, 0,22, 0.00,60.00,Tuesday
1424,48.8888888888889
1425,59.814278837562796
1426,59.814278837562796
1427,59.814278837562796
1441,0.0
1457,0.0
2,3, 1, 3, 0,23, 0.00,60.00,Tuesday
1424,48.8888888888889
1425,59.62937815719543
1426,59.62937815719543
1427,59.62937815719543
1441,0.0
1457,0.0
2,3, 1, 3, 0,24, 0.00,60.00,Tuesday
1424,48.8888888888889
1425,59.445344213482144
1426,59.445344213482144
1427,59.445344213482144
1441,0.0
1457,0.0
2,4, 1, 4, 0, 1, 0.00,60.00,Wednesday
1424,48.8888888888889
1425,59.26217281202176
1426,59.26217281202176
1427,59.26217281202176
1441,0.0
1457,0.0
2,4, 1, 4, 0, 2, 0.00,60.00,Wednesday
1424,48.8888888888889
1425,59.07985977995275
1426,59.07985977995275
1427,59.07985977995275
1441,0.0
1457,0.0
2,4, 1, 4, 0, 3, 0.00,60.00,Wednesday
1424,48.8888888888889
1425,58.89840096595385
1426,58.89840096595385
1427,58.89840096595385
1441,0.0
1457,0.0
2,4, 1, 4, 0, 4, 0.00,60.00,Wednesday
1424,48.8888888888889
1425,58.71779223995581
1426,58.71779223995581
1427,58.71779223995581
1441,0.0
1457,0.0
2,4, 1, 4, 0, 5, 0.00,60.00,Wednesday
1424,48.8888888888889
1425,58.538029493062055
1426,58.538029493062055
1427,58.538029493062055
1441,0.0
1457,0.0
2,4, 1, 4, 0, 6, 0.00,60.00,Wednesday
1424,48.8888888888889
1425,58.359108637437146
1426,58.359108637437146
1427,58.359108637437146
1441,0.0
1457,0.0
2,4, 1, 4, 0, 7, 0.00,60.00,Wednesday
1424,48.8888888888889
1425,58.18102560614619
1426,58.18102560614619
1427,58.18102560614619
1441,0.0
1457,0.0
2,4, 1, 4, 0, 8, 0.00,60.00,Wednesday
1424,48.8888888888889
1425,58.714220794026346
1426,61.20311399408259
1427,58.714220794026346
1441,0.0
1457,0.0
2,4, 1, 4, 0, 9, 0.00,60.00,Wednesday
1424,48.8888888888889
1425,59.907055689935255
1426,59.907055689935255
1427,59.907055689935255
1441,0.0
1457,0.0
2,4, 1, 4, 0,10, 0.00,60.00,Wednesday
1424,48.8888888888889
1425,59.72172006077287
1426,59.72172006077287
1427,59.72172006077287
1441,0.0
1457,0.0
2,4, 1, 4, 0,11, 0.00,60.00,Wednesday
1424,48.8888888888889
1425,59.53725327358644
1426,59.53725327358644
1427,59.53725327358644
1441,0.0
1457,0.0
2,4, 1, 4, 0,12, 0.00,60.00,Wednesday
1424,48.8888888888889
1425,59.35365112316583
1426,59.35365112316583
1427,59.35365112316583
1441,0.0
1457,0.0
2,4, 1, 4, 0,13, 0.00,60.00,Wednesday
1424,48.8888888888889
1425,59.17090942587335
1426,59.17090942587335
1427,59.17090942587335
1441,0.0
1457,0.0
2,4, 1, 4, 0,14, 0.00,60.00,Wednesday
1424,48.8888888888889
1425,58.98902401964124
1426,58.98902401964124
1427,58.98902401964124
1441,0.0
1457,0.0
2,4, 1, 4, 0,15, 0.00,60.00,Wednesday
1424,48.8888888888889
1425,58.807990763799864
1426,58.807990763799864
1427,58.807990763799864
1441,0.0
1457,0.0
2,4, 1, 4, 0,16, 0.00,60.00,Wednesday
1424,48.8888888888889
1425,58.627805538870454
1426,58.627805538870454
1427,58.627805538870454
1441,0.0
1457,0.0
2,4, 1, 4, 0,17, 0.00,60.00,Wednesday
1424,48.8888888888889
1425,58.44846424651462
1426,58.44846424651462
1427,58.44846424651462
1441,0.0
1457,0.0
2,4, 1, 4, 0,18, 0.00,60.00,Wednesday
1424,48.8888888888889
1425,58.26996280935089
1426,58.26996280935089
1427,58.26996280935089
1441,0.0
1457,0.0
2,4, 1, 4, 0,19, 0.00,60.00,Wednesday
1424,48.8888888888889
1425,58.092297170886866
1426,58.092297170886866
1427,58.092297170886866
1441,0.0
1457,0.0
2,4, 1, 4, 0,20, 0.00,60.00,Wednesday
1424,48.8888888888889
1425,59.667177291855914
1426,62.157164153792316
1427,59.667177291855914
1441,0.0
1457,0.0
2,4, 1, 4, 0,21, 0.00,60.00,Wednesday
1424,48.8888888888889
1425,59.814280180618994
1426,59.814280180618994
1427,59.814280180618994
1441,0.0
1457,0.0
2,4, 1, 4, 0,22, 0.00,60.00,Wednesday
1424,48.8888888888889
1425,59.62937949393043
1426,59.62937949393043
1427,59.62937949393043
1441,0.0
1457,0.0
2,4, 1, 4, 0,23, 0.00,60.00,Wednesday
1424,48.8888888888889
1425,59.44534554392992
1426,59.44534554392992
1427,59.44534554392992
1441,0.0
1457,0.0
2,4, 1, 4, 0,24, 0.00,60.00,Wednesday
1424,48.8888888888889
1425,59.26217413621034
1426,59.26217413621034
1427,59.26217413621034
1441,0.0
1457,0.0
2,5, 1, 5, 0, 1, 0.00,60.00,Thursday
1424,48.8888888888889
1425,59.079861097911945
1426,59.079861097911945
1427,59.079861097911945
1441,0.0
1457,0.0
2,5, 1, 5, 0, 2, 0.00,60.00,Thursday
1424,48.8888888888889
1425,58.89840227771711
1426,58.89840227771711
1427,58.89840227771711
1441,0.0
1457,0.0
2,5, 1, 5, 0, 3, 0.00,60.00,Thursday
1424,48.8888888888889
1425,58.71779354555167
1426,58.71779354555167
1427,58.71779354555167
1441,0.0
1457,0.0
2,5, 1, 5, 0, 4, 0.00,60.00,Thursday
1424,48.8888888888889
1425,58.53803079252084
1426,58.53803079252084
1427,58.53803079252084
1441,0.0
1457,0.0
2,5, 1, 5, 0, 5, 0.00,60.00,Thursday
1424,48.8888888888889
1425,58.359109930788065
1426,58.359109930788065
1427,58.359109930788065
1441,0.0
1457,0.0
2,5, 1, 5, 0, 6, 0.00,60.00,Thursday
1424,48.8888888888889
1425,58.181026893418306
1426,58.181026893418306
1427,58.181026893418306
1441,0.0
1457,0.0
2,5, 1, 5, 0, 7, 0.00,60.00,Thursday
1424,48.8888888888889
1425,58.71452698022839
1426,61.2051162607829
1427,58.71452698022839
1441,0.0
1457,0.0
2,5, 1, 5, 0, 8, 0.00,60.00,Thursday
1424,48.8888888888889
1425,59.90705753549147
1426,59.90705753549147
1427,59.90705753549147
1441,0.0
1457,0.0
2,5, 1, 5, 0, 9, 0.00,60.00,Thursday
1424,48.8888888888889
1425,59.721721897644315
1426,59.721721897644315
1427,59.721721897644315
1441,0.0
1457,0.0
2,5, 1, 5, 0,10, 0.00,60.00,Thursday
1424,48.8888888888889
1425,59.53725510181367
1426,59.53725510181367
1427,59.53725510181367
1441,0.0
1457,0.0
2,5, 1, 5, 0,11, 0.00,60.00,Thursday
1424,48.8888888888889
1425,59.35365294279384
1426,59.35365294279384
1427,59.35365294279384
1441,0.0
1457,0.0
2,5, 1, 5, 0,12, 0.00,60.00,Thursday
1424,48.8888888888889
1425,59.17091123694309
1426,59.17091123694309
1427,59.17091123694309
1441,0.0
1457,0.0
2,5, 1, 5, 0,13, 0.00,60.00,Thursday
1424,48.8888888888889
1425,58.989025822192545
1426,58.989025822192545
1427,58.989025822192545
1441,0.0
1457,0.0
2,5, 1, 5, 0,14, 0.00,60.00,Thursday
1424,48.8888888888889
1425,58.807992557875195
1426,58.807992557875195
1427,58.807992557875195
1441,0.0
1457,0.0
2,5, 1, 5, 0,15, 0.00,60.00,Thursday
1424,48.8888888888889
1425,58.62780732451203
1426,58.62780732451203
1427,58.62780732451203
1441,0.0
1457,0.0
2,5, 1, 5, 0,16, 0.00,60.00,Thursday
1424,48.8888888888889
1425,58.448466023762585
1426,58.448466023762585
1427,58.448466023762585
1441,0.0
1457,0.0
2,5, 1, 5, 0,17, 0.00,60.00,Thursday
1424,48.8888888888889
1425,58.269964578245194
1426,58.269964578245194
1427,58.269964578245194
1441,0.0
1457,0.0
2,5, 1, 5, 0,18, 0.00,60.00,Thursday
1424,48.8888888888889
1425,58.09229893147
1426,58.09229893147
1427,58.09229893147
1441,0.0
1457,0.0
2,5, 1, 5, 0,19, 0.00,60.00,Thursday
1424,48.8888888888889
1425,59.667319735116244
1426,62.15808367628295
1427,59.667319735116244
1441,0.0
1457,0.0
2,5, 1, 5, 0,20, 0.00,60.00,Thursday
1424,48.8888888888889
1425,59.814281011976846
1426,59.814281011976846
1427,59.814281011976846
1441,0.0
1457,0.0
2,5, 1, 5, 0,21, 0.00,60.00,Thursday
1424,48.8888888888889
1425,59.62938032137511
1426,59.62938032137511
1427,59.62938032137511
1441,0.0
1457,0.0
2,5, 1, 5, 0,22, 0.00,60.00,Thursday
1424,48.8888888888889
1425,59.445346367481015
1426,59.445346367481015
1427,59.445346367481015
1441,0.0
1457,0.0
2,5, 1, 5, 0,23, 0.00,60.00,Thursday
1424,48.8888888888889
1425,59.26217495588833
1426,59.26217495588833
1427,59.26217495588833
1441,0.0
1457,0.0
2,5, 1, 5, 0,24, 0.00,60.00,Thursday
1424,48.8888888888889
1425,59.079861913735286
1426,59.079861913735286
1427,59.079861913735286
1441,0.0
1457,0.0
2,6, 1, 6, 0, 1, 0.00,60.00,Friday
1424,48.8888888888889
1425,58.898403089703194
1426,58.898403089703194
1427,58.898403089703194
1441,0.0
1457,0.0
2,6, 1, 6, 0, 2, 0.00,60.00,Friday
1424,48.8888888888889
1425,58.71779435371972
1426,58.71779435371972
1427,58.71779435371972
1441,0.0
1457,0.0
2,6, 1, 6, 0, 3, 0.00,60.00,Friday
1424,48.8888888888889
1425,58.538031596889965
1426,58.538031596889965
1427,58.538031596889965
1441,0.0
1457,0.0
2,6, 1, 6, 0, 4, 0.00,60.00,Friday
1424,48.8888888888889
1425,58.359110731376326
1426,58.359110731376326
1427,58.359110731376326
1441,0.0
1457,0.0
2,6, 1, 6, 0, 5, 0.00,60.00,Friday
1424,48.8888888888889
1425,58.18102769024556
1426,58.18102769024556
1427,58.18102769024556
1441,0.0
1457,0.0
2,6, 1, 6, 0, 6, 0.00,60.00,Friday
1424,48.8888888888889
1425,58.71453470478671
1426,61.205143444822326
1427,58.71453470478671
1441,0.0
1457,0.0
2,6, 1, 6, 0, 7, 0.00,60.00,Friday
1424,48.8888888888889
1425,59.907057533889834
1426,59.907057533889834
1427,59.907057533889834
1441,0.0
1457,0.0
2,6, 1, 6, 0, 8, 0.00,60.00,Friday
1424,48.8888888888889
1425,59.721721896051704
1426,59.721721896051704
1427,59.721721896051704
1441,0.0
1457,0.0
2,6, 1, 6, 0, 9, 0.00,60.00,Friday
1424,48.8888888888889
1425,59.537255100230304
1426,59.537255100230304
1427,59.537255100230304
1441,0.0
1457,0.0
2,6, 1, 6, 0,10, 0.00,60.00,Friday
1424,48.8888888888889
1425,59.35365294121587
1426,59.35365294121587
1427,59.35365294121587
1441,0.0
1457,0.0
2,6, 1, 6, 0,11, 0.00,60.00,Friday
1424,48.8888888888889
1425,59.17091161059135
1426,59.17091161059135
1427,59.17091161059135
1441,0.0
1457,0.0
2,6, 1, 6, 0,12, 0.00,60.00,Friday
1424,48.8888888888889
1425,58.98902704594299
1426,58.98902704594299
1427,58.98902704594299
1441,0.0
1457,0.0
2,6, 1, 6, 0,13, 0.00,60.00,Friday
1424,48.8888888888889
1425,58.80799461966804
1426,58.80799461966804
1427,58.80799461966804
1441,0.0
1457,0.0
2,6, 1, 6, 0,14, 0.00,60.00,Friday
1424,48.8888888888889
1425,58.627809847758684
1426,58.627809847758684
1427,58.627809847758684
1441,0.0
1457,0.0
2,6, 1, 6, 0,15, 0.00,60.00,Friday
1424,48.8888888888889
1425,58.44846853514844
1426,58.44846853514844
1427,58.44846853514844
1441,0.0
1457,0.0
2,6, 1, 6, 0,16, 0.00,60.00,Friday
1424,48.8888888888889
1425,58.26996707782946
1426,58.26996707782946
1427,58.26996707782946
1441,0.0
1457,0.0
2,6, 1, 6, 0,17, 0.00,60.00,Friday
1424,48.8888888888889
1425,58.092301431917214
1426,58.092301431917214
1427,58.092301431917214
1441,0.0
1457,0.0
2,6, 1, 6, 0,18, 0.00,60.00,Friday
1424,48.8888888888889
1425,59.66921863432854
1426,61.53698796655667
1427,59.66921863432854
1441,0.0
1457,0.0
2,6, 1, 6, 0,19, 0.00,60.00,Friday
1424,48.8888888888889
1425,59.791112890316526
1426,59.791112890316526
1427,59.791112890316526
1441,0.0
1457,0.0
2,6, 1, 6, 0,20, 0.00,60.00,Friday
1424,48.8888888888889
1425,59.60632153761224
1426,59.60632153761224
1427,59.60632153761224
1441,0.0
1457,0.0
2,6, 1, 6, 0,21, 0.00,60.00,Friday
1424,48.8888888888889
1425,59.422396155521156
1426,59.422396155521156
1427,59.422396155521156
1441,0.0
1457,0.0
2,6, 1, 6, 0,22, 0.00,60.00,Friday
1424,48.8888888888889
1425,59.239332299316914
1426,59.239332299316914
1427,59.239332299316914
1441,0.0
1457,0.0
2,6, 1, 6, 0,23, 0.00,60.00,Friday
1424,48.8888888888889
1425,59.05712629237704
1426,59.05712629237704
1427,59.05712629237704
1441,0.0
1457,0.0
2,6, 1, 6, 0,24, 0.00,60.00,Friday
1424,48.8888888888889
1425,58.87577398598086
1426,58.87577398598086
1427,58.87577398598086
1441,0.0
1457,0.0
2,7, 1, 7, 0, 1, 0.00,60.00,Saturday
1424,48.8888888888889
1425,58.695271252725576
1426,58.695271252725576
1427,58.695271252725576
1441,0.0
1457,0.0
2,7, 1, 7, 0, 2, 0.00,60.00,Saturday
1424,48.8888888888889
1425,58.51561398633312
1426,58.51561398633312
1427,58.51561398633312
1441,0.0
1457,0.0
2,7, 1, 7, 0, 3, 0.00,60.00,Saturday
1424,48.8888888888889
1425,58.33679810157736
1426,58.33679810157736
1427,58.33679810157736
1441,0.0
1457,0.0
2,7, 1, 7, 0, 4, 0.00,60.00,Saturday
1424,48.8888888888889
1425,58.15881953415788
1426,58.15881953415788
1427,58.15881953415788
1441,0.0
1457,0.0
2,7, 1, 7, 0, 5, 0.00,60.00,Saturday
1424,48.8888888888889
1425,59.20480865040494
1426,61.6943496507285
1427,59.20480865040494
1441,0.0
1457,0.0
2,7, 1, 7, 0, 6, 0.00,60.00,Saturday
1424,48.8888888888889
1425,59.86063962406093
1426,59.86063962406093
1427,59.86063962406093
1441,0.0
1457,0.0
2,7, 1, 7, 0, 7, 0.00,60.00,Saturday
1424,48.8888888888889
1425,59.675521603044714
1426,59.675521603044714
1427,59.675521603044714
1441,0.0
1457,0.0
2,7, 1, 7, 0, 8, 0.00,60.00,Saturday
1424,48.8888888888889
1425,59.49127137066347
1426,59.49127137066347
1427,59.49127137066347
1441,0.0
1457,0.0
2,7, 1, 7, 0, 9, 0.00,60.00,Saturday
1424,48.8888888888889
1425,59.30788472710901
1426,59.30788472710901
1427,59.30788472710901
1441,0.0
1457,0.0
2,7, 1, 7, 0,10, 0.00,60.00,Saturday
1424,48.8888888888889
1425,59.12535750744465
1426,59.12535750744465
1427,59.12535750744465
1441,0.0
1457,0.0
2,7, 1, 7, 0,11, 0.00,60.00,Saturday
1424,48.8888888888889
1425,58.943686098348074
1426,58.943686098348074
1427,58.943686098348074
1441,0.0
1457,0.0
2,7, 1, 7, 0,12, 0.00,60.00,Saturday
1424,48.8888888888889
1425,58.7628660637689
1426,58.7628660637689
1427,58.7628660637689
1441,0.0
1457,0.0
2,7, 1, 7, 0,13, 0.00,60.00,Saturday
1424,48.8888888888889
1425,58.582892475433226
1426,58.582892475433226
1427,58.582892475433226
1441,0.0
1457,0.0
2,7, 1, 7, 0,14, 0.00,60.00,Saturday
1424,48.8888888888889
1425,58.403761522584034
1426,58.403761522584034
1427,58.403761522584034
1441,0.0
1457,0.0
2,7, 1, 7, 0,15, 0.00,60.00,Saturday
1424,48.8888888888889
1425,58.22546940887641
1426,58.22546940887641
1427,58.22546940887641
1441,0.0
1457,0.0
2,7, 1, 7, 0,16, 0.00,60.00,Saturday
1424,48.8888888888889
1425,58.27290880673502
1426,59.516569329061085
1427,58.27290880673502
1441,0.0
1457,0.0
2,7, 1, 7, 0,17, 0.00,60.00,Saturday
1424,48.8888888888889
1425,59.917506522644516
1426,61.16211098571153
1427,59.917506522644516
1441,0.0
1457,0.0
2,7, 1, 7, 0,18, 0.00,60.00,Saturday
1424,48.8888888888889
1425,59.767971673471266
1426,59.767971673471266
1427,59.767971673471266
1441,0.0
1457,0.0
2,7, 1, 7, 0,19, 0.00,60.00,Saturday
1424,48.8888888888889
1425,59.58328807403416
1426,59.58328807403416
1427,59.58328807403416
1441,0.0
1457,0.0
2,7, 1, 7, 0,20, 0.00,60.00,Saturday
1424,48.8888888888889
1425,59.39947016060364
1426,59.39947016060364
1427,59.39947016060364
1441,0.0
1457,0.0
2,7, 1, 7, 0,21, 0.00,60.00,Saturday
1424,48.8888888888889
1425,59.21651374421841
1426,59.21651374421841
1427,59.21651374421841
1441,0.0
1457,0.0
2,7, 1, 7, 0,22, 0.00,60.00,Saturday
1424,48.8888888888889
1425,59.03441465737006
1426,59.03441465737006
1427,59.03441465737006
1441,0.0
1457,0.0
2,7, 1, 7, 0,23, 0.00,60.00,Saturday
1424,48.8888888888889
1425,58.85316875407767
1426,58.85316875407767
1427,58.85316875407767
1441,0.0
1457,0.0
2,7, 1, 7, 0,24, 0.00,60.00,Saturday
1424,48.8888888888889
1425,58.67277190956946
1426,58.67277190956946
1427,58.67277190956946
1441,0.0
1457,0.0
2,8, 1, 8, 0, 1, 0.00,60.00,Sunday
1424,48.8888888888889
1425,58.49322002022741
1426,58.49322002022741
1427,58.49322002022741
1441,0.0
1457,0.0
2,8, 1, 8, 0, 2, 0.00,60.00,Sunday
1424,48.8888888888889
1425,58.314509003450475
1426,58.314509003450475
1427,58.314509003450475
1441,0.0
1457,0.0
2,8, 1, 8, 0, 3, 0.00,60.00,Sunday
1424,48.8888888888889
1425,58.13663479752889
1426,58.13663479752889
1427,58.13663479752889
1441,0.0
1457,0.0
2,8, 1, 8, 0, 4, 0.00,60.00,Sunday
1424,48.8888888888889
1425,59.19064924151169
1426,61.678283690728776
1427,59.19064924151169
1441,0.0
1457,0.0
2,8, 1, 8, 0, 5, 0.00,60.00,Sunday
1424,48.8888888888889
1425,59.86063873896887
1426,59.86063873896887
1427,59.86063873896887
1441,0.0
1457,0.0
2,8, 1, 8, 0, 6, 0.00,60.00,Sunday
1424,48.8888888888889
1425,59.67552072211737
1426,59.67552072211737
1427,59.67552072211737
1441,0.0
1457,0.0
2,8, 1, 8, 0, 7, 0.00,60.00,Sunday
1424,48.8888888888889
1425,59.49127049382613
1426,59.49127049382613
1427,59.49127049382613
1441,0.0
1457,0.0
2,8, 1, 8, 0, 8, 0.00,60.00,Sunday
1424,48.8888888888889
1425,59.30788385438763
1426,59.30788385438763
1427,59.30788385438763
1441,0.0
1457,0.0
2,8, 1, 8, 0, 9, 0.00,60.00,Sunday
1424,48.8888888888889
1425,59.1253566255118
1426,59.1253566255118
1427,59.1253566255118
1441,0.0
1457,0.0
2,8, 1, 8, 0,10, 0.00,60.00,Sunday
1424,48.8888888888889
1425,58.94368465050792
1426,58.94368465050792
1427,58.94368465050792
1441,0.0
1457,0.0
2,8, 1, 8, 0,11, 0.00,60.00,Sunday
1424,48.8888888888889
1425,58.76286379400996
1426,58.76286379400996
1427,58.76286379400996
1441,0.0
1457,0.0
2,8, 1, 8, 0,12, 0.00,60.00,Sunday
1424,48.8888888888889
1425,58.58288994183164
1426,58.58288994183164
1427,58.58288994183164
1441,0.0
1457,0.0
2,8, 1, 8, 0,13, 0.00,60.00,Sunday
1424,48.8888888888889
1425,58.403759000892336
1426,58.403759000892336
1427,58.403759000892336
1441,0.0
1457,0.0
2,8, 1, 8, 0,14, 0.00,60.00,Sunday
1424,48.8888888888889
1425,58.22546689903515
1426,58.22546689903515
1427,58.22546689903515
1441,0.0
1457,0.0
2,8, 1, 8, 0,15, 0.00,60.00,Sunday
1424,48.8888888888889
1425,58.27283461881465
1426,59.516098701998466
1427,58.27283461881465
1441,0.0
1457,0.0
2,8, 1, 8, 0,16, 0.00,60.00,Sunday
1424,48.8888888888889
1425,59.917433762754804
1426,61.16162644005438
1427,59.917433762754804
1441,0.0
1457,0.0
2,8, 1, 8, 0,17, 0.00,60.00,Sunday
1424,48.8888888888889
1425,59.767970778967864
1426,59.767970778967864
1427,59.767970778967864
1441,0.0
1457,0.0
2,8, 1, 8, 0,18, 0.00,60.00,Sunday
1424,48.8888888888889
1425,59.58328718373849
1426,59.58328718373849
1427,59.58328718373849
1441,0.0
1457,0.0
2,8, 1, 8, 0,19, 0.00,60.00,Sunday
1424,48.8888888888889
1425,59.39946927449469
1426,59.39946927449469
1427,59.39946927449469
1441,0.0
1457,0.0
2,8, 1, 8, 0,20, 0.00,60.00,Sunday
1424,48.8888888888889
1425,59.21651286227817
1426,59.21651286227817
1427,59.21651286227817
1441,0.0
1457,0.0
2,8, 1, 8, 0,21, 0.00,60.00,Sunday
1424,48.8888888888889
1425,59.03441377957864
1426,59.03441377957864
1427,59.03441377957864
1441,0.0
1457,0.0
2,8, 1, 8, 0,22, 0.00,60.00,Sunday
1424,48.8888888888889
1425,58.85316788041438
1426,58.85316788041438
1427,58.85316788041438
1441,0.0
1457,0.0
2,8, 1, 8, 0,23, 0.00,60.00,Sunday
1424,48.8888888888889
1425,58.67277104001278
1426,58.67277104001278
1427,58.67277104001278
1441,0.0
1457,0.0
2,8, 1, 8, 0,24, 0.00,60.00,Sunday
1424,48.8888888888889
1425,58.49321915476055
1426,58.49321915476055
1427,58.49321915476055
1441,0.0
1457,0.0
2,9, 1, 9, 0, 1, 0.00,60.00,Monday
1424,48.8888888888889
1425,58.31450814204934
1426,58.31450814204934
1427,58.31450814204934
1441,0.0
1457,0.0
2,9, 1, 9, 0, 2, 0.00,60.00,Monday
1424,48.8888888888889
1425,58.136633940176004
1426,58.136633940176004
1427,58.136633940176004
1441,0.0
1457,0.0
2,9, 1, 9, 0, 3, 0.00,60.00,Monday
1424,48.8888888888889
1425,59.19056224470576
1426,61.67772212917214
1427,59.19056224470576
1441,0.0
1457,0.0
2,9, 1, 9, 0, 4, 0.00,60.00,Monday
1424,48.8888888888889
1425,59.86063822501318
1426,59.86063822501318
1427,59.86063822501318
1441,0.0
1457,0.0
2,9, 1, 9, 0, 5, 0.00,60.00,Monday
1424,48.8888888888889
1425,59.67552021058016
1426,59.67552021058016
1427,59.67552021058016
1441,0.0
1457,0.0